created by fftool

4000 atoms
400 bonds
200 angles
5 atom types
2 bond types
1 angle types
0.000000 42.000000 xlo xhi
0.000000 42.000000 ylo yhi
0.000000 42.000000 zlo zhi

Masses

   1   48.040  # CX
   2   67.070  # Im
   3   57.115  # Bu
   4   15.035  # Me
   5  144.960  # PF6

Bond Coeffs

   1   500.000000     4.352000  # Im-Bu
   2   500.000000     3.489000  # Im-Me

Angle Coeffs

   1    50.000000   130.360000  # Bu-Im-Me

Atoms

      1       1    1   0.0000  0.000000e+00  0.000000e+00  0.000000e+00  # CX PLATEX
      2       1    1   0.0000  0.000000e+00  1.000000e+00  0.000000e+00  # CX PLATEX
      3       1    1   0.0000  0.000000e+00  2.000000e+00  0.000000e+00  # CX PLATEX
      4       1    1   0.0000  0.000000e+00  3.000000e+00  0.000000e+00  # CX PLATEX
      5       1    1   0.0000  0.000000e+00  4.000000e+00  0.000000e+00  # CX PLATEX
      6       1    1   0.0000  0.000000e+00  5.000000e+00  0.000000e+00  # CX PLATEX
      7       1    1   0.0000  0.000000e+00  6.000000e+00  0.000000e+00  # CX PLATEX
      8       1    1   0.0000  0.000000e+00  7.000000e+00  0.000000e+00  # CX PLATEX
      9       1    1   0.0000  0.000000e+00  8.000000e+00  0.000000e+00  # CX PLATEX
     10       1    1   0.0000  0.000000e+00  9.000000e+00  0.000000e+00  # CX PLATEX
     11       1    1   0.0000  0.000000e+00  1.000000e+01  0.000000e+00  # CX PLATEX
     12       1    1   0.0000  0.000000e+00  1.100000e+01  0.000000e+00  # CX PLATEX
     13       1    1   0.0000  0.000000e+00  1.200000e+01  0.000000e+00  # CX PLATEX
     14       1    1   0.0000  0.000000e+00  1.300000e+01  0.000000e+00  # CX PLATEX
     15       1    1   0.0000  0.000000e+00  1.400000e+01  0.000000e+00  # CX PLATEX
     16       1    1   0.0000  0.000000e+00  1.500000e+01  0.000000e+00  # CX PLATEX
     17       1    1   0.0000  0.000000e+00  1.600000e+01  0.000000e+00  # CX PLATEX
     18       1    1   0.0000  0.000000e+00  1.700000e+01  0.000000e+00  # CX PLATEX
     19       1    1   0.0000  0.000000e+00  1.800000e+01  0.000000e+00  # CX PLATEX
     20       1    1   0.0000  0.000000e+00  1.900000e+01  0.000000e+00  # CX PLATEX
     21       1    1   0.0000  0.000000e+00  2.000000e+01  0.000000e+00  # CX PLATEX
     22       1    1   0.0000  0.000000e+00  2.100000e+01  0.000000e+00  # CX PLATEX
     23       1    1   0.0000  0.000000e+00  2.200000e+01  0.000000e+00  # CX PLATEX
     24       1    1   0.0000  0.000000e+00  2.300000e+01  0.000000e+00  # CX PLATEX
     25       1    1   0.0000  0.000000e+00  2.400000e+01  0.000000e+00  # CX PLATEX
     26       1    1   0.0000  0.000000e+00  2.500000e+01  0.000000e+00  # CX PLATEX
     27       1    1   0.0000  0.000000e+00  2.600000e+01  0.000000e+00  # CX PLATEX
     28       1    1   0.0000  0.000000e+00  2.700000e+01  0.000000e+00  # CX PLATEX
     29       1    1   0.0000  0.000000e+00  2.800000e+01  0.000000e+00  # CX PLATEX
     30       1    1   0.0000  0.000000e+00  2.900000e+01  0.000000e+00  # CX PLATEX
     31       1    1   0.0000  0.000000e+00  3.000000e+01  0.000000e+00  # CX PLATEX
     32       1    1   0.0000  0.000000e+00  3.100000e+01  0.000000e+00  # CX PLATEX
     33       1    1   0.0000  0.000000e+00  3.200000e+01  0.000000e+00  # CX PLATEX
     34       1    1   0.0000  0.000000e+00  3.300000e+01  0.000000e+00  # CX PLATEX
     35       1    1   0.0000  0.000000e+00  3.400000e+01  0.000000e+00  # CX PLATEX
     36       1    1   0.0000  0.000000e+00  3.500000e+01  0.000000e+00  # CX PLATEX
     37       1    1   0.0000  0.000000e+00  3.600000e+01  0.000000e+00  # CX PLATEX
     38       1    1   0.0000  0.000000e+00  3.700000e+01  0.000000e+00  # CX PLATEX
     39       1    1   0.0000  0.000000e+00  3.800000e+01  0.000000e+00  # CX PLATEX
     40       1    1   0.0000  0.000000e+00  3.900000e+01  0.000000e+00  # CX PLATEX
     41       1    1   0.0000  1.000000e+00  0.000000e+00  0.000000e+00  # CX PLATEX
     42       1    1   0.0000  1.000000e+00  1.000000e+00  0.000000e+00  # CX PLATEX
     43       1    1   0.0000  1.000000e+00  2.000000e+00  0.000000e+00  # CX PLATEX
     44       1    1   0.0000  1.000000e+00  3.000000e+00  0.000000e+00  # CX PLATEX
     45       1    1   0.0000  1.000000e+00  4.000000e+00  0.000000e+00  # CX PLATEX
     46       1    1   0.0000  1.000000e+00  5.000000e+00  0.000000e+00  # CX PLATEX
     47       1    1   0.0000  1.000000e+00  6.000000e+00  0.000000e+00  # CX PLATEX
     48       1    1   0.0000  1.000000e+00  7.000000e+00  0.000000e+00  # CX PLATEX
     49       1    1   0.0000  1.000000e+00  8.000000e+00  0.000000e+00  # CX PLATEX
     50       1    1   0.0000  1.000000e+00  9.000000e+00  0.000000e+00  # CX PLATEX
     51       1    1   0.0000  1.000000e+00  1.000000e+01  0.000000e+00  # CX PLATEX
     52       1    1   0.0000  1.000000e+00  1.100000e+01  0.000000e+00  # CX PLATEX
     53       1    1   0.0000  1.000000e+00  1.200000e+01  0.000000e+00  # CX PLATEX
     54       1    1   0.0000  1.000000e+00  1.300000e+01  0.000000e+00  # CX PLATEX
     55       1    1   0.0000  1.000000e+00  1.400000e+01  0.000000e+00  # CX PLATEX
     56       1    1   0.0000  1.000000e+00  1.500000e+01  0.000000e+00  # CX PLATEX
     57       1    1   0.0000  1.000000e+00  1.600000e+01  0.000000e+00  # CX PLATEX
     58       1    1   0.0000  1.000000e+00  1.700000e+01  0.000000e+00  # CX PLATEX
     59       1    1   0.0000  1.000000e+00  1.800000e+01  0.000000e+00  # CX PLATEX
     60       1    1   0.0000  1.000000e+00  1.900000e+01  0.000000e+00  # CX PLATEX
     61       1    1   0.0000  1.000000e+00  2.000000e+01  0.000000e+00  # CX PLATEX
     62       1    1   0.0000  1.000000e+00  2.100000e+01  0.000000e+00  # CX PLATEX
     63       1    1   0.0000  1.000000e+00  2.200000e+01  0.000000e+00  # CX PLATEX
     64       1    1   0.0000  1.000000e+00  2.300000e+01  0.000000e+00  # CX PLATEX
     65       1    1   0.0000  1.000000e+00  2.400000e+01  0.000000e+00  # CX PLATEX
     66       1    1   0.0000  1.000000e+00  2.500000e+01  0.000000e+00  # CX PLATEX
     67       1    1   0.0000  1.000000e+00  2.600000e+01  0.000000e+00  # CX PLATEX
     68       1    1   0.0000  1.000000e+00  2.700000e+01  0.000000e+00  # CX PLATEX
     69       1    1   0.0000  1.000000e+00  2.800000e+01  0.000000e+00  # CX PLATEX
     70       1    1   0.0000  1.000000e+00  2.900000e+01  0.000000e+00  # CX PLATEX
     71       1    1   0.0000  1.000000e+00  3.000000e+01  0.000000e+00  # CX PLATEX
     72       1    1   0.0000  1.000000e+00  3.100000e+01  0.000000e+00  # CX PLATEX
     73       1    1   0.0000  1.000000e+00  3.200000e+01  0.000000e+00  # CX PLATEX
     74       1    1   0.0000  1.000000e+00  3.300000e+01  0.000000e+00  # CX PLATEX
     75       1    1   0.0000  1.000000e+00  3.400000e+01  0.000000e+00  # CX PLATEX
     76       1    1   0.0000  1.000000e+00  3.500000e+01  0.000000e+00  # CX PLATEX
     77       1    1   0.0000  1.000000e+00  3.600000e+01  0.000000e+00  # CX PLATEX
     78       1    1   0.0000  1.000000e+00  3.700000e+01  0.000000e+00  # CX PLATEX
     79       1    1   0.0000  1.000000e+00  3.800000e+01  0.000000e+00  # CX PLATEX
     80       1    1   0.0000  1.000000e+00  3.900000e+01  0.000000e+00  # CX PLATEX
     81       1    1   0.0000  2.000000e+00  0.000000e+00  0.000000e+00  # CX PLATEX
     82       1    1   0.0000  2.000000e+00  1.000000e+00  0.000000e+00  # CX PLATEX
     83       1    1   0.0000  2.000000e+00  2.000000e+00  0.000000e+00  # CX PLATEX
     84       1    1   0.0000  2.000000e+00  3.000000e+00  0.000000e+00  # CX PLATEX
     85       1    1   0.0000  2.000000e+00  4.000000e+00  0.000000e+00  # CX PLATEX
     86       1    1   0.0000  2.000000e+00  5.000000e+00  0.000000e+00  # CX PLATEX
     87       1    1   0.0000  2.000000e+00  6.000000e+00  0.000000e+00  # CX PLATEX
     88       1    1   0.0000  2.000000e+00  7.000000e+00  0.000000e+00  # CX PLATEX
     89       1    1   0.0000  2.000000e+00  8.000000e+00  0.000000e+00  # CX PLATEX
     90       1    1   0.0000  2.000000e+00  9.000000e+00  0.000000e+00  # CX PLATEX
     91       1    1   0.0000  2.000000e+00  1.000000e+01  0.000000e+00  # CX PLATEX
     92       1    1   0.0000  2.000000e+00  1.100000e+01  0.000000e+00  # CX PLATEX
     93       1    1   0.0000  2.000000e+00  1.200000e+01  0.000000e+00  # CX PLATEX
     94       1    1   0.0000  2.000000e+00  1.300000e+01  0.000000e+00  # CX PLATEX
     95       1    1   0.0000  2.000000e+00  1.400000e+01  0.000000e+00  # CX PLATEX
     96       1    1   0.0000  2.000000e+00  1.500000e+01  0.000000e+00  # CX PLATEX
     97       1    1   0.0000  2.000000e+00  1.600000e+01  0.000000e+00  # CX PLATEX
     98       1    1   0.0000  2.000000e+00  1.700000e+01  0.000000e+00  # CX PLATEX
     99       1    1   0.0000  2.000000e+00  1.800000e+01  0.000000e+00  # CX PLATEX
    100       1    1   0.0000  2.000000e+00  1.900000e+01  0.000000e+00  # CX PLATEX
    101       1    1   0.0000  2.000000e+00  2.000000e+01  0.000000e+00  # CX PLATEX
    102       1    1   0.0000  2.000000e+00  2.100000e+01  0.000000e+00  # CX PLATEX
    103       1    1   0.0000  2.000000e+00  2.200000e+01  0.000000e+00  # CX PLATEX
    104       1    1   0.0000  2.000000e+00  2.300000e+01  0.000000e+00  # CX PLATEX
    105       1    1   0.0000  2.000000e+00  2.400000e+01  0.000000e+00  # CX PLATEX
    106       1    1   0.0000  2.000000e+00  2.500000e+01  0.000000e+00  # CX PLATEX
    107       1    1   0.0000  2.000000e+00  2.600000e+01  0.000000e+00  # CX PLATEX
    108       1    1   0.0000  2.000000e+00  2.700000e+01  0.000000e+00  # CX PLATEX
    109       1    1   0.0000  2.000000e+00  2.800000e+01  0.000000e+00  # CX PLATEX
    110       1    1   0.0000  2.000000e+00  2.900000e+01  0.000000e+00  # CX PLATEX
    111       1    1   0.0000  2.000000e+00  3.000000e+01  0.000000e+00  # CX PLATEX
    112       1    1   0.0000  2.000000e+00  3.100000e+01  0.000000e+00  # CX PLATEX
    113       1    1   0.0000  2.000000e+00  3.200000e+01  0.000000e+00  # CX PLATEX
    114       1    1   0.0000  2.000000e+00  3.300000e+01  0.000000e+00  # CX PLATEX
    115       1    1   0.0000  2.000000e+00  3.400000e+01  0.000000e+00  # CX PLATEX
    116       1    1   0.0000  2.000000e+00  3.500000e+01  0.000000e+00  # CX PLATEX
    117       1    1   0.0000  2.000000e+00  3.600000e+01  0.000000e+00  # CX PLATEX
    118       1    1   0.0000  2.000000e+00  3.700000e+01  0.000000e+00  # CX PLATEX
    119       1    1   0.0000  2.000000e+00  3.800000e+01  0.000000e+00  # CX PLATEX
    120       1    1   0.0000  2.000000e+00  3.900000e+01  0.000000e+00  # CX PLATEX
    121       1    1   0.0000  3.000000e+00  0.000000e+00  0.000000e+00  # CX PLATEX
    122       1    1   0.0000  3.000000e+00  1.000000e+00  0.000000e+00  # CX PLATEX
    123       1    1   0.0000  3.000000e+00  2.000000e+00  0.000000e+00  # CX PLATEX
    124       1    1   0.0000  3.000000e+00  3.000000e+00  0.000000e+00  # CX PLATEX
    125       1    1   0.0000  3.000000e+00  4.000000e+00  0.000000e+00  # CX PLATEX
    126       1    1   0.0000  3.000000e+00  5.000000e+00  0.000000e+00  # CX PLATEX
    127       1    1   0.0000  3.000000e+00  6.000000e+00  0.000000e+00  # CX PLATEX
    128       1    1   0.0000  3.000000e+00  7.000000e+00  0.000000e+00  # CX PLATEX
    129       1    1   0.0000  3.000000e+00  8.000000e+00  0.000000e+00  # CX PLATEX
    130       1    1   0.0000  3.000000e+00  9.000000e+00  0.000000e+00  # CX PLATEX
    131       1    1   0.0000  3.000000e+00  1.000000e+01  0.000000e+00  # CX PLATEX
    132       1    1   0.0000  3.000000e+00  1.100000e+01  0.000000e+00  # CX PLATEX
    133       1    1   0.0000  3.000000e+00  1.200000e+01  0.000000e+00  # CX PLATEX
    134       1    1   0.0000  3.000000e+00  1.300000e+01  0.000000e+00  # CX PLATEX
    135       1    1   0.0000  3.000000e+00  1.400000e+01  0.000000e+00  # CX PLATEX
    136       1    1   0.0000  3.000000e+00  1.500000e+01  0.000000e+00  # CX PLATEX
    137       1    1   0.0000  3.000000e+00  1.600000e+01  0.000000e+00  # CX PLATEX
    138       1    1   0.0000  3.000000e+00  1.700000e+01  0.000000e+00  # CX PLATEX
    139       1    1   0.0000  3.000000e+00  1.800000e+01  0.000000e+00  # CX PLATEX
    140       1    1   0.0000  3.000000e+00  1.900000e+01  0.000000e+00  # CX PLATEX
    141       1    1   0.0000  3.000000e+00  2.000000e+01  0.000000e+00  # CX PLATEX
    142       1    1   0.0000  3.000000e+00  2.100000e+01  0.000000e+00  # CX PLATEX
    143       1    1   0.0000  3.000000e+00  2.200000e+01  0.000000e+00  # CX PLATEX
    144       1    1   0.0000  3.000000e+00  2.300000e+01  0.000000e+00  # CX PLATEX
    145       1    1   0.0000  3.000000e+00  2.400000e+01  0.000000e+00  # CX PLATEX
    146       1    1   0.0000  3.000000e+00  2.500000e+01  0.000000e+00  # CX PLATEX
    147       1    1   0.0000  3.000000e+00  2.600000e+01  0.000000e+00  # CX PLATEX
    148       1    1   0.0000  3.000000e+00  2.700000e+01  0.000000e+00  # CX PLATEX
    149       1    1   0.0000  3.000000e+00  2.800000e+01  0.000000e+00  # CX PLATEX
    150       1    1   0.0000  3.000000e+00  2.900000e+01  0.000000e+00  # CX PLATEX
    151       1    1   0.0000  3.000000e+00  3.000000e+01  0.000000e+00  # CX PLATEX
    152       1    1   0.0000  3.000000e+00  3.100000e+01  0.000000e+00  # CX PLATEX
    153       1    1   0.0000  3.000000e+00  3.200000e+01  0.000000e+00  # CX PLATEX
    154       1    1   0.0000  3.000000e+00  3.300000e+01  0.000000e+00  # CX PLATEX
    155       1    1   0.0000  3.000000e+00  3.400000e+01  0.000000e+00  # CX PLATEX
    156       1    1   0.0000  3.000000e+00  3.500000e+01  0.000000e+00  # CX PLATEX
    157       1    1   0.0000  3.000000e+00  3.600000e+01  0.000000e+00  # CX PLATEX
    158       1    1   0.0000  3.000000e+00  3.700000e+01  0.000000e+00  # CX PLATEX
    159       1    1   0.0000  3.000000e+00  3.800000e+01  0.000000e+00  # CX PLATEX
    160       1    1   0.0000  3.000000e+00  3.900000e+01  0.000000e+00  # CX PLATEX
    161       1    1   0.0000  4.000000e+00  0.000000e+00  0.000000e+00  # CX PLATEX
    162       1    1   0.0000  4.000000e+00  1.000000e+00  0.000000e+00  # CX PLATEX
    163       1    1   0.0000  4.000000e+00  2.000000e+00  0.000000e+00  # CX PLATEX
    164       1    1   0.0000  4.000000e+00  3.000000e+00  0.000000e+00  # CX PLATEX
    165       1    1   0.0000  4.000000e+00  4.000000e+00  0.000000e+00  # CX PLATEX
    166       1    1   0.0000  4.000000e+00  5.000000e+00  0.000000e+00  # CX PLATEX
    167       1    1   0.0000  4.000000e+00  6.000000e+00  0.000000e+00  # CX PLATEX
    168       1    1   0.0000  4.000000e+00  7.000000e+00  0.000000e+00  # CX PLATEX
    169       1    1   0.0000  4.000000e+00  8.000000e+00  0.000000e+00  # CX PLATEX
    170       1    1   0.0000  4.000000e+00  9.000000e+00  0.000000e+00  # CX PLATEX
    171       1    1   0.0000  4.000000e+00  1.000000e+01  0.000000e+00  # CX PLATEX
    172       1    1   0.0000  4.000000e+00  1.100000e+01  0.000000e+00  # CX PLATEX
    173       1    1   0.0000  4.000000e+00  1.200000e+01  0.000000e+00  # CX PLATEX
    174       1    1   0.0000  4.000000e+00  1.300000e+01  0.000000e+00  # CX PLATEX
    175       1    1   0.0000  4.000000e+00  1.400000e+01  0.000000e+00  # CX PLATEX
    176       1    1   0.0000  4.000000e+00  1.500000e+01  0.000000e+00  # CX PLATEX
    177       1    1   0.0000  4.000000e+00  1.600000e+01  0.000000e+00  # CX PLATEX
    178       1    1   0.0000  4.000000e+00  1.700000e+01  0.000000e+00  # CX PLATEX
    179       1    1   0.0000  4.000000e+00  1.800000e+01  0.000000e+00  # CX PLATEX
    180       1    1   0.0000  4.000000e+00  1.900000e+01  0.000000e+00  # CX PLATEX
    181       1    1   0.0000  4.000000e+00  2.000000e+01  0.000000e+00  # CX PLATEX
    182       1    1   0.0000  4.000000e+00  2.100000e+01  0.000000e+00  # CX PLATEX
    183       1    1   0.0000  4.000000e+00  2.200000e+01  0.000000e+00  # CX PLATEX
    184       1    1   0.0000  4.000000e+00  2.300000e+01  0.000000e+00  # CX PLATEX
    185       1    1   0.0000  4.000000e+00  2.400000e+01  0.000000e+00  # CX PLATEX
    186       1    1   0.0000  4.000000e+00  2.500000e+01  0.000000e+00  # CX PLATEX
    187       1    1   0.0000  4.000000e+00  2.600000e+01  0.000000e+00  # CX PLATEX
    188       1    1   0.0000  4.000000e+00  2.700000e+01  0.000000e+00  # CX PLATEX
    189       1    1   0.0000  4.000000e+00  2.800000e+01  0.000000e+00  # CX PLATEX
    190       1    1   0.0000  4.000000e+00  2.900000e+01  0.000000e+00  # CX PLATEX
    191       1    1   0.0000  4.000000e+00  3.000000e+01  0.000000e+00  # CX PLATEX
    192       1    1   0.0000  4.000000e+00  3.100000e+01  0.000000e+00  # CX PLATEX
    193       1    1   0.0000  4.000000e+00  3.200000e+01  0.000000e+00  # CX PLATEX
    194       1    1   0.0000  4.000000e+00  3.300000e+01  0.000000e+00  # CX PLATEX
    195       1    1   0.0000  4.000000e+00  3.400000e+01  0.000000e+00  # CX PLATEX
    196       1    1   0.0000  4.000000e+00  3.500000e+01  0.000000e+00  # CX PLATEX
    197       1    1   0.0000  4.000000e+00  3.600000e+01  0.000000e+00  # CX PLATEX
    198       1    1   0.0000  4.000000e+00  3.700000e+01  0.000000e+00  # CX PLATEX
    199       1    1   0.0000  4.000000e+00  3.800000e+01  0.000000e+00  # CX PLATEX
    200       1    1   0.0000  4.000000e+00  3.900000e+01  0.000000e+00  # CX PLATEX
    201       1    1   0.0000  5.000000e+00  0.000000e+00  0.000000e+00  # CX PLATEX
    202       1    1   0.0000  5.000000e+00  1.000000e+00  0.000000e+00  # CX PLATEX
    203       1    1   0.0000  5.000000e+00  2.000000e+00  0.000000e+00  # CX PLATEX
    204       1    1   0.0000  5.000000e+00  3.000000e+00  0.000000e+00  # CX PLATEX
    205       1    1   0.0000  5.000000e+00  4.000000e+00  0.000000e+00  # CX PLATEX
    206       1    1   0.0000  5.000000e+00  5.000000e+00  0.000000e+00  # CX PLATEX
    207       1    1   0.0000  5.000000e+00  6.000000e+00  0.000000e+00  # CX PLATEX
    208       1    1   0.0000  5.000000e+00  7.000000e+00  0.000000e+00  # CX PLATEX
    209       1    1   0.0000  5.000000e+00  8.000000e+00  0.000000e+00  # CX PLATEX
    210       1    1   0.0000  5.000000e+00  9.000000e+00  0.000000e+00  # CX PLATEX
    211       1    1   0.0000  5.000000e+00  1.000000e+01  0.000000e+00  # CX PLATEX
    212       1    1   0.0000  5.000000e+00  1.100000e+01  0.000000e+00  # CX PLATEX
    213       1    1   0.0000  5.000000e+00  1.200000e+01  0.000000e+00  # CX PLATEX
    214       1    1   0.0000  5.000000e+00  1.300000e+01  0.000000e+00  # CX PLATEX
    215       1    1   0.0000  5.000000e+00  1.400000e+01  0.000000e+00  # CX PLATEX
    216       1    1   0.0000  5.000000e+00  1.500000e+01  0.000000e+00  # CX PLATEX
    217       1    1   0.0000  5.000000e+00  1.600000e+01  0.000000e+00  # CX PLATEX
    218       1    1   0.0000  5.000000e+00  1.700000e+01  0.000000e+00  # CX PLATEX
    219       1    1   0.0000  5.000000e+00  1.800000e+01  0.000000e+00  # CX PLATEX
    220       1    1   0.0000  5.000000e+00  1.900000e+01  0.000000e+00  # CX PLATEX
    221       1    1   0.0000  5.000000e+00  2.000000e+01  0.000000e+00  # CX PLATEX
    222       1    1   0.0000  5.000000e+00  2.100000e+01  0.000000e+00  # CX PLATEX
    223       1    1   0.0000  5.000000e+00  2.200000e+01  0.000000e+00  # CX PLATEX
    224       1    1   0.0000  5.000000e+00  2.300000e+01  0.000000e+00  # CX PLATEX
    225       1    1   0.0000  5.000000e+00  2.400000e+01  0.000000e+00  # CX PLATEX
    226       1    1   0.0000  5.000000e+00  2.500000e+01  0.000000e+00  # CX PLATEX
    227       1    1   0.0000  5.000000e+00  2.600000e+01  0.000000e+00  # CX PLATEX
    228       1    1   0.0000  5.000000e+00  2.700000e+01  0.000000e+00  # CX PLATEX
    229       1    1   0.0000  5.000000e+00  2.800000e+01  0.000000e+00  # CX PLATEX
    230       1    1   0.0000  5.000000e+00  2.900000e+01  0.000000e+00  # CX PLATEX
    231       1    1   0.0000  5.000000e+00  3.000000e+01  0.000000e+00  # CX PLATEX
    232       1    1   0.0000  5.000000e+00  3.100000e+01  0.000000e+00  # CX PLATEX
    233       1    1   0.0000  5.000000e+00  3.200000e+01  0.000000e+00  # CX PLATEX
    234       1    1   0.0000  5.000000e+00  3.300000e+01  0.000000e+00  # CX PLATEX
    235       1    1   0.0000  5.000000e+00  3.400000e+01  0.000000e+00  # CX PLATEX
    236       1    1   0.0000  5.000000e+00  3.500000e+01  0.000000e+00  # CX PLATEX
    237       1    1   0.0000  5.000000e+00  3.600000e+01  0.000000e+00  # CX PLATEX
    238       1    1   0.0000  5.000000e+00  3.700000e+01  0.000000e+00  # CX PLATEX
    239       1    1   0.0000  5.000000e+00  3.800000e+01  0.000000e+00  # CX PLATEX
    240       1    1   0.0000  5.000000e+00  3.900000e+01  0.000000e+00  # CX PLATEX
    241       1    1   0.0000  6.000000e+00  0.000000e+00  0.000000e+00  # CX PLATEX
    242       1    1   0.0000  6.000000e+00  1.000000e+00  0.000000e+00  # CX PLATEX
    243       1    1   0.0000  6.000000e+00  2.000000e+00  0.000000e+00  # CX PLATEX
    244       1    1   0.0000  6.000000e+00  3.000000e+00  0.000000e+00  # CX PLATEX
    245       1    1   0.0000  6.000000e+00  4.000000e+00  0.000000e+00  # CX PLATEX
    246       1    1   0.0000  6.000000e+00  5.000000e+00  0.000000e+00  # CX PLATEX
    247       1    1   0.0000  6.000000e+00  6.000000e+00  0.000000e+00  # CX PLATEX
    248       1    1   0.0000  6.000000e+00  7.000000e+00  0.000000e+00  # CX PLATEX
    249       1    1   0.0000  6.000000e+00  8.000000e+00  0.000000e+00  # CX PLATEX
    250       1    1   0.0000  6.000000e+00  9.000000e+00  0.000000e+00  # CX PLATEX
    251       1    1   0.0000  6.000000e+00  1.000000e+01  0.000000e+00  # CX PLATEX
    252       1    1   0.0000  6.000000e+00  1.100000e+01  0.000000e+00  # CX PLATEX
    253       1    1   0.0000  6.000000e+00  1.200000e+01  0.000000e+00  # CX PLATEX
    254       1    1   0.0000  6.000000e+00  1.300000e+01  0.000000e+00  # CX PLATEX
    255       1    1   0.0000  6.000000e+00  1.400000e+01  0.000000e+00  # CX PLATEX
    256       1    1   0.0000  6.000000e+00  1.500000e+01  0.000000e+00  # CX PLATEX
    257       1    1   0.0000  6.000000e+00  1.600000e+01  0.000000e+00  # CX PLATEX
    258       1    1   0.0000  6.000000e+00  1.700000e+01  0.000000e+00  # CX PLATEX
    259       1    1   0.0000  6.000000e+00  1.800000e+01  0.000000e+00  # CX PLATEX
    260       1    1   0.0000  6.000000e+00  1.900000e+01  0.000000e+00  # CX PLATEX
    261       1    1   0.0000  6.000000e+00  2.000000e+01  0.000000e+00  # CX PLATEX
    262       1    1   0.0000  6.000000e+00  2.100000e+01  0.000000e+00  # CX PLATEX
    263       1    1   0.0000  6.000000e+00  2.200000e+01  0.000000e+00  # CX PLATEX
    264       1    1   0.0000  6.000000e+00  2.300000e+01  0.000000e+00  # CX PLATEX
    265       1    1   0.0000  6.000000e+00  2.400000e+01  0.000000e+00  # CX PLATEX
    266       1    1   0.0000  6.000000e+00  2.500000e+01  0.000000e+00  # CX PLATEX
    267       1    1   0.0000  6.000000e+00  2.600000e+01  0.000000e+00  # CX PLATEX
    268       1    1   0.0000  6.000000e+00  2.700000e+01  0.000000e+00  # CX PLATEX
    269       1    1   0.0000  6.000000e+00  2.800000e+01  0.000000e+00  # CX PLATEX
    270       1    1   0.0000  6.000000e+00  2.900000e+01  0.000000e+00  # CX PLATEX
    271       1    1   0.0000  6.000000e+00  3.000000e+01  0.000000e+00  # CX PLATEX
    272       1    1   0.0000  6.000000e+00  3.100000e+01  0.000000e+00  # CX PLATEX
    273       1    1   0.0000  6.000000e+00  3.200000e+01  0.000000e+00  # CX PLATEX
    274       1    1   0.0000  6.000000e+00  3.300000e+01  0.000000e+00  # CX PLATEX
    275       1    1   0.0000  6.000000e+00  3.400000e+01  0.000000e+00  # CX PLATEX
    276       1    1   0.0000  6.000000e+00  3.500000e+01  0.000000e+00  # CX PLATEX
    277       1    1   0.0000  6.000000e+00  3.600000e+01  0.000000e+00  # CX PLATEX
    278       1    1   0.0000  6.000000e+00  3.700000e+01  0.000000e+00  # CX PLATEX
    279       1    1   0.0000  6.000000e+00  3.800000e+01  0.000000e+00  # CX PLATEX
    280       1    1   0.0000  6.000000e+00  3.900000e+01  0.000000e+00  # CX PLATEX
    281       1    1   0.0000  7.000000e+00  0.000000e+00  0.000000e+00  # CX PLATEX
    282       1    1   0.0000  7.000000e+00  1.000000e+00  0.000000e+00  # CX PLATEX
    283       1    1   0.0000  7.000000e+00  2.000000e+00  0.000000e+00  # CX PLATEX
    284       1    1   0.0000  7.000000e+00  3.000000e+00  0.000000e+00  # CX PLATEX
    285       1    1   0.0000  7.000000e+00  4.000000e+00  0.000000e+00  # CX PLATEX
    286       1    1   0.0000  7.000000e+00  5.000000e+00  0.000000e+00  # CX PLATEX
    287       1    1   0.0000  7.000000e+00  6.000000e+00  0.000000e+00  # CX PLATEX
    288       1    1   0.0000  7.000000e+00  7.000000e+00  0.000000e+00  # CX PLATEX
    289       1    1   0.0000  7.000000e+00  8.000000e+00  0.000000e+00  # CX PLATEX
    290       1    1   0.0000  7.000000e+00  9.000000e+00  0.000000e+00  # CX PLATEX
    291       1    1   0.0000  7.000000e+00  1.000000e+01  0.000000e+00  # CX PLATEX
    292       1    1   0.0000  7.000000e+00  1.100000e+01  0.000000e+00  # CX PLATEX
    293       1    1   0.0000  7.000000e+00  1.200000e+01  0.000000e+00  # CX PLATEX
    294       1    1   0.0000  7.000000e+00  1.300000e+01  0.000000e+00  # CX PLATEX
    295       1    1   0.0000  7.000000e+00  1.400000e+01  0.000000e+00  # CX PLATEX
    296       1    1   0.0000  7.000000e+00  1.500000e+01  0.000000e+00  # CX PLATEX
    297       1    1   0.0000  7.000000e+00  1.600000e+01  0.000000e+00  # CX PLATEX
    298       1    1   0.0000  7.000000e+00  1.700000e+01  0.000000e+00  # CX PLATEX
    299       1    1   0.0000  7.000000e+00  1.800000e+01  0.000000e+00  # CX PLATEX
    300       1    1   0.0000  7.000000e+00  1.900000e+01  0.000000e+00  # CX PLATEX
    301       1    1   0.0000  7.000000e+00  2.000000e+01  0.000000e+00  # CX PLATEX
    302       1    1   0.0000  7.000000e+00  2.100000e+01  0.000000e+00  # CX PLATEX
    303       1    1   0.0000  7.000000e+00  2.200000e+01  0.000000e+00  # CX PLATEX
    304       1    1   0.0000  7.000000e+00  2.300000e+01  0.000000e+00  # CX PLATEX
    305       1    1   0.0000  7.000000e+00  2.400000e+01  0.000000e+00  # CX PLATEX
    306       1    1   0.0000  7.000000e+00  2.500000e+01  0.000000e+00  # CX PLATEX
    307       1    1   0.0000  7.000000e+00  2.600000e+01  0.000000e+00  # CX PLATEX
    308       1    1   0.0000  7.000000e+00  2.700000e+01  0.000000e+00  # CX PLATEX
    309       1    1   0.0000  7.000000e+00  2.800000e+01  0.000000e+00  # CX PLATEX
    310       1    1   0.0000  7.000000e+00  2.900000e+01  0.000000e+00  # CX PLATEX
    311       1    1   0.0000  7.000000e+00  3.000000e+01  0.000000e+00  # CX PLATEX
    312       1    1   0.0000  7.000000e+00  3.100000e+01  0.000000e+00  # CX PLATEX
    313       1    1   0.0000  7.000000e+00  3.200000e+01  0.000000e+00  # CX PLATEX
    314       1    1   0.0000  7.000000e+00  3.300000e+01  0.000000e+00  # CX PLATEX
    315       1    1   0.0000  7.000000e+00  3.400000e+01  0.000000e+00  # CX PLATEX
    316       1    1   0.0000  7.000000e+00  3.500000e+01  0.000000e+00  # CX PLATEX
    317       1    1   0.0000  7.000000e+00  3.600000e+01  0.000000e+00  # CX PLATEX
    318       1    1   0.0000  7.000000e+00  3.700000e+01  0.000000e+00  # CX PLATEX
    319       1    1   0.0000  7.000000e+00  3.800000e+01  0.000000e+00  # CX PLATEX
    320       1    1   0.0000  7.000000e+00  3.900000e+01  0.000000e+00  # CX PLATEX
    321       1    1   0.0000  8.000000e+00  0.000000e+00  0.000000e+00  # CX PLATEX
    322       1    1   0.0000  8.000000e+00  1.000000e+00  0.000000e+00  # CX PLATEX
    323       1    1   0.0000  8.000000e+00  2.000000e+00  0.000000e+00  # CX PLATEX
    324       1    1   0.0000  8.000000e+00  3.000000e+00  0.000000e+00  # CX PLATEX
    325       1    1   0.0000  8.000000e+00  4.000000e+00  0.000000e+00  # CX PLATEX
    326       1    1   0.0000  8.000000e+00  5.000000e+00  0.000000e+00  # CX PLATEX
    327       1    1   0.0000  8.000000e+00  6.000000e+00  0.000000e+00  # CX PLATEX
    328       1    1   0.0000  8.000000e+00  7.000000e+00  0.000000e+00  # CX PLATEX
    329       1    1   0.0000  8.000000e+00  8.000000e+00  0.000000e+00  # CX PLATEX
    330       1    1   0.0000  8.000000e+00  9.000000e+00  0.000000e+00  # CX PLATEX
    331       1    1   0.0000  8.000000e+00  1.000000e+01  0.000000e+00  # CX PLATEX
    332       1    1   0.0000  8.000000e+00  1.100000e+01  0.000000e+00  # CX PLATEX
    333       1    1   0.0000  8.000000e+00  1.200000e+01  0.000000e+00  # CX PLATEX
    334       1    1   0.0000  8.000000e+00  1.300000e+01  0.000000e+00  # CX PLATEX
    335       1    1   0.0000  8.000000e+00  1.400000e+01  0.000000e+00  # CX PLATEX
    336       1    1   0.0000  8.000000e+00  1.500000e+01  0.000000e+00  # CX PLATEX
    337       1    1   0.0000  8.000000e+00  1.600000e+01  0.000000e+00  # CX PLATEX
    338       1    1   0.0000  8.000000e+00  1.700000e+01  0.000000e+00  # CX PLATEX
    339       1    1   0.0000  8.000000e+00  1.800000e+01  0.000000e+00  # CX PLATEX
    340       1    1   0.0000  8.000000e+00  1.900000e+01  0.000000e+00  # CX PLATEX
    341       1    1   0.0000  8.000000e+00  2.000000e+01  0.000000e+00  # CX PLATEX
    342       1    1   0.0000  8.000000e+00  2.100000e+01  0.000000e+00  # CX PLATEX
    343       1    1   0.0000  8.000000e+00  2.200000e+01  0.000000e+00  # CX PLATEX
    344       1    1   0.0000  8.000000e+00  2.300000e+01  0.000000e+00  # CX PLATEX
    345       1    1   0.0000  8.000000e+00  2.400000e+01  0.000000e+00  # CX PLATEX
    346       1    1   0.0000  8.000000e+00  2.500000e+01  0.000000e+00  # CX PLATEX
    347       1    1   0.0000  8.000000e+00  2.600000e+01  0.000000e+00  # CX PLATEX